
 Primary working directories    : /tmp/bijit/Q1-Q3-NO2/molpro.fV1gOsgXLr
 Secondary working directories  : /tmp/bijit/Q1-Q3-NO2/molpro.fV1gOsgXLr
 Wavefunction directory         : /home/koushik/CODES/PESMan/heh2_test/ExpDir/Export1-multimrci1/multimrci1-geom589-1/./
 Main file repository           : /tmp/bijit/Q1-Q3-NO2/molpro.fV1gOsgXLr/

 id        : iacsdirector

 Nodes     nprocs
 koushik      2

 Using customized tuning parameters: mindgm=1; mindgv=20; mindgc=4; mindgr=1; noblas=0; minvec=7
 default implementation of scratch files=sf  


 Variables initialized (930), CPU time= 0.01 sec
 ***,HeH2+
                                                                                ! multimrci1-geom589-1 : basename to be substituted
 file,2,multimrci1-geom589-1.wfu
 punch,multimrci1-geom589-1.pun
 
 basis=cc-pvtz;
 
 symmetry,nosym
 orient,noorient
 geometry=multimrci1-geom589-1.xyz
 Including file /home/koushik/CODES/PESMan/heh2_test/ExpDir/Export1-multimrci1/multimrci1-geom589-1/multimrci1-geom589-1.xyz
 
 {mcscf;
 occ,10;closed,0;
 wf,3,1,1;state,2;
 maxiter,40;
 start,2341.2;
 orbital,2341.2;}
 
 {mcscf;
 occ,10;closed,0;
 wf,3,1,1;state,3;
 maxiter,40;
 start,2341.2;
 orbital,2342.2;}
 
 
 show,energy
 table,energy
 save,multimrci1-geom589-1.res,new
 
 {ci;occ,10;core,0;closed,0;maxiter,200,200;
  wf,3,1,1;state,3;}
 
 
 show,energy
 table,energy
 save,multimrci1-geom589-1.res,new
 
 Commands  initialized (760), CPU time= 0.01 sec, 617 directives.
 Default parameters read. Elapsed time= 0.12 sec

 Checking input...
 Passed
1


                                         ***  PROGRAM SYSTEM MOLPRO  ***
                                       Copyright, TTI GmbH Stuttgart, 2015
                                    Version 2018.2 linked Nov 10 2018 21:55:55


 **********************************************************************************************************************************
 LABEL *   HeH2+                                                                         
  64 bit mpp version                                                                     DATE: 07-Aug-19          TIME: 10:02:47  
 **********************************************************************************************************************************

 SHA1:             5ea806b172b3d20b18658228ad0b1c212d33fc17
 **********************************************************************************************************************************

 Variable memory set to    8000000 words,  buffer space 



 Permanent file  2  multimrci1-geom589-1.wfu         assigned.  Implementation=df  



 **********************************************************************************************************************************
 DATASETS  * FILE   NREC   LENGTH (MB)   RECORD NAMES
              2       1        0.03       500   
                                          VAR  

 PROGRAMS   *        TOTAL      FILE
 CPU TIMES  *         0.13      0.00
 REAL TIME  *         0.38 SEC
 DISK USED  *         0.09 MB (local),        0.17 MB (total)
 **********************************************************************************************************************************

 PUNCHFILE MULTIMRCI1-GEOM589-1.PUN OPENED
 SETTING BASIS          =    CC-PVTZ
 ZSYMEL=NOSYM


Geometry recognized as XYZ



 Recomputing integrals since basis changed


 Using spherical harmonics

 Library entry H      S cc-pVTZ              selected for orbital group  1
 Library entry H      P cc-pVTZ              selected for orbital group  1
 Library entry H      D cc-pVTZ              selected for orbital group  1
 Library entry HE     S cc-pVTZ              selected for orbital group  2
 Library entry HE     P cc-pVTZ              selected for orbital group  2
 Library entry HE     D cc-pVTZ              selected for orbital group  2


 PROGRAM * SEWARD (Integral evaluation for generally contracted gaussian basis sets)     Author: Roland Lindh, 1990

 Geometry written to block  1 of record 700


 Point group  C1  



 ATOMIC COORDINATES

 NR  ATOM    CHARGE       X              Y              Z

   1  H       1.00    0.000000000    0.000000000    0.999665120
   2  H       1.00    0.000000000    0.000000000   -0.999665120
   3  HE      2.00    0.000000000    3.000885086    0.000000000

 NUCLEAR CHARGE:                    4
 NUMBER OF PRIMITIVE AOS:          52
 NUMBER OF SYMMETRY AOS:           49
 NUMBER OF CONTRACTIONS:           42   (   42A   )
 NUMBER OF CORE ORBITALS:           0   (    0A   )
 NUMBER OF VALENCE ORBITALS:        3   (    3A   )


 NUCLEAR REPULSION ENERGY    1.76478510

 EXTRA SYMMETRY OF AOS IN SYMMETRY 1:   1 1 1 2 1 1 2 1 1 1   2 2 1 1 1 1 1 2 1 1   2 1 1 1 2 2 1 1 1 1   1 2 1 1 2 1 1 1 2 2
                                        1 1

 Eigenvalues of metric

         1 0.544E-02 0.121E-01 0.284E-01 0.333E-01 0.684E-01 0.114E+00 0.195E+00 0.198E+00


 Contracted 2-electron integrals neglected if value below      1.0D-11
 AO integral compression algorithm  1   Integral accuracy      1.0D-11

     1.573 MB (compressed) written to integral file ( 33.3%)

     Node minimum: 0.786 MB, node maximum: 0.786 MB


 NUMBER OF SORTED TWO-ELECTRON INTEGRALS:     203852.     BUFFER LENGTH:  32768
 NUMBER OF SEGMENTS:   1  SEGMENT LENGTH:     203852      RECORD LENGTH: 524288

 Memory used in sort:       0.76 MW

 SORT1 READ      544483. AND WROTE       92761. INTEGRALS IN      1 RECORDS. CPU TIME:     0.01 SEC, REAL TIME:     0.00 SEC
 SORT2 READ      185886. AND WROTE      408156. INTEGRALS IN      6 RECORDS. CPU TIME:     0.01 SEC, REAL TIME:     0.01 SEC

 Node minimum:      203852.  Node maximum:      204304. integrals

 OPERATOR DM      FOR CENTER  0  COORDINATES:    0.000000    0.000000    0.000000


 **********************************************************************************************************************************
 DATASETS  * FILE   NREC   LENGTH (MB)   RECORD NAMES
              1      18       30.04       500      610      700      900      950      970     1000      129      960     1100   
                                          VAR    BASINP    GEOM    SYMINP    ZMAT    AOBASIS   BASIS     P2S    ABASIS      S 
                                         1400     1410     1200     1210     1080     1600     1650     1700   
                                           T        V       H0       H01     AOSYM     SMH    MOLCAS    OPER   

              2       5       12.31       500      610      700     1000      520   
                                          VAR    BASINP    GEOM     BASIS   MCVARS    

 PROGRAMS   *        TOTAL       INT      FILE
 CPU TIMES  *         0.28      0.14      0.00
 REAL TIME  *         0.87 SEC
 DISK USED  *        42.40 MB (local),       94.16 MB (total)
 GA USED    *         0.00 MB       (max)       0.00 MB       (current)
 **********************************************************************************************************************************


 PROGRAM * MULTI (Direct Multiconfiguration SCF)       Authors: P.J. Knowles, H.-J. Werner (1984)


 Number of active  orbitals:       10 (  10 )
 Number of external orbitals:      32 (  32 )

 State symmetry 1

 Number of electrons:     3    Spin symmetry=Doublet   Space symmetry=1
 Number of states:        2
 Number of CSFs:        330   (450 determinants, 450 intermediate states)

 Iteration controls:
             1  2  3  4  5  6  7  8  9 10 11 12 13 14 15 16 17 18 19 20 21 22 23 24 25 26 27 28 29 30 31 32 33 34 35 36 37 38 39 40
 DIAGCI      T  T  T  T  T  T  T  T  T  T  T  T  T  T  T  T  T  T  T  T  T  T  T  T  T  T  T  T  T  T  T  T  T  T  T  T  T  T  T  T
 WERNER      T  T  T  T  T  T  T  T  T  T  T  T  T  T  T  T  T  T  T  T  T  T  T  T  T  T  T  T  T  T  T  T  T  T  T  T  T  T  T  T
 INTERNAL    F  T  T  T  T  T  T  T  T  T  T  T  T  T  T  T  T  T  T  T  T  T  T  T  T  T  T  T  T  T  T  T  T  T  T  T  T  T  T  T

 Orbital guess generated from atomic densities. Full valence occupancy:    3

 EXTRA SYMMETRY OF MOS IN SYMMETRY 1:   1 1 1 1 1 2 1 1 1 1   2 1 2 1 1 1 1 2 1 2   1 1 2 1 2 2 1 1 1 1   2 1 1 1 1 2 2 1 1 2
                                        1 1

 Wavefunction dump at record             2341.2

 Convergence thresholds  0.10E-01 (gradient)  0.10E-05 (energy)  0.10E-02 (step length)

 Weight factors for state symmetry  1:    0.50000   0.50000

 Number of orbital rotations:      320   (     0 Core/Active      0 Core/Virtual   0 Active/Active    320 Active/Virtual)
 Total number of variables:       1220

 Micro-Iterations solved by the two-step solver

 ITER. MIC  NCI  NEG     ENERGY(VAR)     ENERGY(PROJ)   ENERGY CHANGE     GRAD(0)  GRAD(ORB)   GRAD(CI)     STEP       TIME

 Not enough P space configurations found with threshold  0.40  for  2 states. Nplist= 1  threshold increased to    0.90
   1   20   52    1      -3.26328203      -3.29610684   -0.03282481    0.08903871 0.00017472 0.00516404  0.19D+01      0.32
   2   11   41    0      -3.29592885      -3.29632754   -0.00039869    0.00436580 0.00001631 0.00060953  0.61D+00      0.44
   3   16   57    0      -3.29632852      -3.29632872   -0.00000020    0.00005178 0.00000039 0.00001627  0.42D-01      0.61
   4    3   13    0      -3.29632872      -3.29632872   -0.00000000    0.00000045 0.00000021 0.00000887  0.58D-03      0.66

 ** WVFN ****  CONVERGENCE REACHED, FINAL GRADIENT:  0.18D-06



 Results for state 1.1
 =====================

 !MCSCF STATE  1.1 Energy              -3.495374904100
 Nuclear energy                         1.76478510
 Kinetic energy                         3.52114522
 One electron energy                   -6.85225179
 Two electron energy                    1.59209179
 Virial ratio                           1.99268127

 !MCSCF STATE  1.1 Dipole moment       -0.00000000     0.19182413     0.00000000
 Dipole moment /Debye                  -0.00000000     0.48753637     0.00000000

 Results for state 2.1
 =====================

 !MCSCF STATE  2.1 Energy              -3.097282538263
 Nuclear energy                         1.76478510
 Kinetic energy                         3.53969698
 One electron energy                   -6.33910132
 Two electron energy                    1.47703368
 Virial ratio                           1.87501347

 !MCSCF STATE  2.1 Dipole moment        0.00000000     0.42859110    -0.00000000
 Dipole moment /Debye                   0.00000000     1.08929856    -0.00000000

 State-averaged charge density matrix saved on record  2341.2 (density set 1)

 !MCSCF expec         <1.1|DMY|1.1>     0.191824130739 au =     0.487536374203 Debye
 !MCSCF expec         <2.1|DMY|2.1>     0.428591096370 au =     1.089298558712 Debye

 !MCSCF trans         <2.1|DMZ|1.1>    -0.924537508629 au =    -2.349786041180 Debye


 EXTRA SYMMETRY OF MOS IN SYMMETRY 1:   1 1 1 1 1 1 2 1 1 1   1 1 2 2 1 1 1 1 1 2   2 1 1 1 2 2 2 1 1 1   1 2 1 1 1 2 1 2 1 1
                                        2 1

 Natural orbital dump (state averaged) at molpro section  2341.2    (Orbital set 2)



 **********************************************************************************************************************************
 DATASETS  * FILE   NREC   LENGTH (MB)   RECORD NAMES
              1      19       31.24       500      610      700      900      950      970     1000      129      960     1100   
                                          VAR    BASINP    GEOM    SYMINP    ZMAT    AOBASIS   BASIS     P2S    ABASIS      S 
                                         1400     1410     1200     1210     1080     1600     1650     1700     1380   
                                           T        V       H0       H01     AOSYM     SMH    MOLCAS    OPER     JKOP   

              2       6       14.88       500      610      700     1000      520     2341   
                                          VAR    BASINP    GEOM     BASIS   MCVARS    MCSCF   

 PROGRAMS   *        TOTAL     MCSCF       INT      FILE
 CPU TIMES  *         0.97      0.70      0.14      0.00
 REAL TIME  *         1.70 SEC
 DISK USED  *        46.17 MB (local),      101.71 MB (total)
 SF USED    *         5.72 MB
 GA USED    *         0.00 MB       (max)       0.00 MB       (current)
 **********************************************************************************************************************************


 PROGRAM * MULTI (Direct Multiconfiguration SCF)       Authors: P.J. Knowles, H.-J. Werner (1984)


 Number of active  orbitals:       10 (  10 )
 Number of external orbitals:      32 (  32 )

 State symmetry 1

 Number of electrons:     3    Spin symmetry=Doublet   Space symmetry=1
 Number of states:        3
 Number of CSFs:        330   (450 determinants, 450 intermediate states)

 Iteration controls:
             1  2  3  4  5  6  7  8  9 10 11 12 13 14 15 16 17 18 19 20 21 22 23 24 25 26 27 28 29 30 31 32 33 34 35 36 37 38 39 40
 DIAGCI      T  T  T  T  T  T  T  T  T  T  T  T  T  T  T  T  T  T  T  T  T  T  T  T  T  T  T  T  T  T  T  T  T  T  T  T  T  T  T  T
 WERNER      T  T  T  T  T  T  T  T  T  T  T  T  T  T  T  T  T  T  T  T  T  T  T  T  T  T  T  T  T  T  T  T  T  T  T  T  T  T  T  T
 INTERNAL    F  T  T  T  T  T  T  T  T  T  T  T  T  T  T  T  T  T  T  T  T  T  T  T  T  T  T  T  T  T  T  T  T  T  T  T  T  T  T  T

 Molecular orbitals read from record     2341.2  Type=MCSCF/NATURAL (state averaged)

 EXTRA SYMMETRY OF MOS IN SYMMETRY 1:   1 1 1 1 1 1 2 1 1 1   1 1 2 2 1 1 1 1 1 2   2 1 1 1 2 2 2 1 1 1   1 2 1 1 1 2 1 2 1 1
                                        2 1

 Wavefunction dump at record             2342.2

 Convergence thresholds  0.10E-01 (gradient)  0.10E-05 (energy)  0.10E-02 (step length)

 Weight factors for state symmetry  1:    0.33333   0.33333   0.33333

 Number of orbital rotations:      320   (     0 Core/Active      0 Core/Virtual   0 Active/Active    320 Active/Virtual)
 Total number of variables:       1670

 Micro-Iterations solved by the two-step solver

 ITER. MIC  NCI  NEG     ENERGY(VAR)     ENERGY(PROJ)   ENERGY CHANGE     GRAD(0)  GRAD(ORB)   GRAD(CI)     STEP       TIME

 Not enough P space configurations found with threshold  0.40  for  3 states. Nplist= 1  threshold increased to    0.90
   1   10   38    0      -3.22497722      -3.22971518   -0.00473796    0.04960070 0.00023031 0.00354610  0.14D+01      0.16
   2    7   26    0      -3.22972215      -3.22977510   -0.00005295    0.00183534 0.00001528 0.00023169  0.14D+00      0.24
   3    5   17    0      -3.22977531      -3.22977532   -0.00000001    0.00001365 0.00000101 0.00001278  0.16D-02      0.30
   4    3    9    0      -3.22977532      -3.22977532   -0.00000000    0.00000052 0.00000012 0.00000140  0.35D-04      0.34

 ** WVFN ****  CONVERGENCE REACHED, FINAL GRADIENT:  0.65D-07



 Results for state 1.1
 =====================

 !MCSCF STATE  1.1 Energy              -3.494735055166
 Nuclear energy                         1.76478510
 Kinetic energy                         3.50505035
 One electron energy                   -6.85085003
 Two electron energy                    1.59132987
 Virial ratio                           1.99705702

 !MCSCF STATE  1.1 Dipole moment        0.00000000     0.20016391     0.00000000
 Dipole moment /Debye                   0.00000000     0.50873259     0.00000000

 Results for state 2.1
 =====================

 !MCSCF STATE  2.1 Energy              -3.098783204693
 Nuclear energy                         1.76478510
 Kinetic energy                         3.19429337
 One electron energy                   -6.05359897
 Two electron energy                    1.19003066
 Virial ratio                           1.97009975

 !MCSCF STATE  2.1 Dipole moment        0.00000000     2.71056546     0.00000000
 Dipole moment /Debye                   0.00000000     6.88911896     0.00000000

 Results for state 3.1
 =====================

 !MCSCF STATE  3.1 Energy              -3.095807687555
 Nuclear energy                         1.76478510
 Kinetic energy                         3.52901319
 One electron energy                   -6.34050328
 Two electron energy                    1.47991049
 Virial ratio                           1.87724458

 !MCSCF STATE  3.1 Dipole moment        0.00000000     0.43329476     0.00000000
 Dipole moment /Debye                   0.00000000     1.10125330     0.00000000

 State-averaged charge density matrix saved on record  2342.2 (density set 1)

 !MCSCF expec         <1.1|DMY|1.1>     0.200163911664 au =     0.508732594606 Debye
 !MCSCF trans         <2.1|DMY|1.1>    -0.502575061741 au =    -1.277334725419 Debye
 !MCSCF expec         <2.1|DMY|2.1>     2.710565457511 au =     6.889118955502 Debye
 !MCSCF expec         <3.1|DMY|3.1>     0.433294763323 au =     1.101253304566 Debye

 !MCSCF trans         <3.1|DMZ|1.1>    -0.942727181385 au =    -2.396016549664 Debye
 !MCSCF trans         <3.1|DMZ|2.1>    -0.020828132548 au =    -0.052936365122 Debye


 EXTRA SYMMETRY OF MOS IN SYMMETRY 1:   1 1 1 1 1 1 1 2 1 1   2 1 2 1 1 1 1 1 2 2   1 1 1 2 1 2 2 1 1 1   1 2 1 1 2 1 2 1 1 2
                                        1 1

 Natural orbital dump (state averaged) at molpro section  2342.2    (Orbital set 2)



 **********************************************************************************************************************************
 DATASETS  * FILE   NREC   LENGTH (MB)   RECORD NAMES
              1      19       31.24       500      610      700      900      950      970     1000      129      960     1100   
                                          VAR    BASINP    GEOM    SYMINP    ZMAT    AOBASIS   BASIS     P2S    ABASIS      S 
                                         1400     1410     1200     1210     1080     1600     1650     1700     1380   
                                           T        V       H0       H01     AOSYM     SMH    MOLCAS    OPER     JKOP   

              2       7       17.47       500      610      700     1000      520     2341     2342   
                                          VAR    BASINP    GEOM     BASIS   MCVARS    MCSCF    MCSCF   

 PROGRAMS   *        TOTAL     MCSCF     MCSCF       INT      FILE
 CPU TIMES  *         1.34      0.37      0.70      0.14      0.00
 REAL TIME  *         2.13 SEC
 DISK USED  *        48.76 MB (local),      106.89 MB (total)
 SF USED    *         5.79 MB
 GA USED    *         0.00 MB       (max)       0.00 MB       (current)
 **********************************************************************************************************************************
 ENERGY(1:3)      = [      -3.49473506    -3.09878320    -3.09580769] HARTREE

 Multi-results: Energies ---  multimrci1-geom589-1

       ENERGY
    -3.49473506
    -3.09878320
    -3.09580769
                                                  


 PROGRAM * CI (Multireference internally contracted CI)     Authors: H.-J. Werner, P.J. Knowles, 1987


 Convergence thresholds:  THRVAR = 1.00D-08  THRDEN = 1.00D-06

 Number of optimized states:  3  Roots:   1   2   3
 Number of reference states:  3  Roots:   1   2   3

 Reference symmetry:                   1   Doublet 
 Number of electrons:                  3
 Maximum number of shells:             2
 Maximum number of spin couplings:     2

 Reference space:      210 conf      330 CSFs
 N elec internal:      210 conf      330 CSFs
 N-1 el internal:       55 conf      100 CSFs
 N-2 el internal:       10 conf       20 CSFs

 Number of electrons in valence space:                      3
 Maximum number of open shell orbitals in reference space:  3
 Maximum number of open shell orbitals in internal spaces:  3


 Number of active  orbitals:       10 (  10 )
 Number of external orbitals:      32 (  32 )

 Molecular orbitals read from record     2342.2  Type=MCSCF/NATURAL (state averaged)

 Coulomb and exchange operators available. No transformation done.


 Number of p-space configurations:   3

 Reference wavefunction optimized for reference space (refopt=1)

 State     Reference Energy 
   1          -3.49473506
   2          -3.09878320
   3          -3.09580769

 Number of blocks in overlap matrix:     4   Smallest eigenvalue:  0.35D+00
 Number of N-2 electron functions:      20
 Number of N-1 electron functions:     100

 Number of internal configurations:                  330
 Number of singly external configurations:          3200
 Number of doubly external configurations:         10240
 Total number of contracted configurations:        13770
 Total number of uncontracted configurations:      13770

 Diagonal Coupling coefficients finished.               Storage:  245989 words, CPU-Time:      0.02 seconds.
 Energy denominators for pairs finished in 1 passes.    Storage:   63621 words, CPU-time:      0.00 seconds.

  ITER. STATE  ROOT     SQ.NORM     CORR.ENERGY   TOTAL ENERGY   ENERGY CHANGE       DEN1      VAR(S)    VAR(P)      TIME
    1     1     1     1.00000000     0.00000000    -3.49473506    -0.00000000    -0.00503515  0.27D-03  0.32D-03     0.13
    1     2     2     1.00000000     0.00000000    -3.09878320     0.00000000    -0.00659368  0.40D-03  0.10D-02     0.13
    1     3     3     1.00000000     0.00000000    -3.09580769     0.00000000    -0.00544113  0.74D-03  0.30D-03     0.13
    2     1     1     1.00058943    -0.00500205    -3.49973710    -0.00500205    -0.00013569  0.14D-04  0.57D-05     0.18
    2     2     2     1.00217258    -0.00806160    -3.10684480    -0.00806160    -0.00035852  0.23D-04  0.56D-04     0.18
    2     3     3     1.00109382    -0.00555963    -3.10136731    -0.00555963    -0.00023890  0.39D-04  0.11D-04     0.18
    3     1     1     1.00068349    -0.00516384    -3.49989889    -0.00016179    -0.00000756  0.80D-06  0.39D-06     0.24
    3     2     2     1.00285914    -0.00853704    -3.10732024    -0.00047544    -0.00003201  0.27D-05  0.37D-05     0.24
    3     3     3     1.00149734    -0.00584795    -3.10165564    -0.00028833    -0.00001456  0.24D-05  0.64D-06     0.24
    4     1     1     1.00070471    -0.00517223    -3.49990728    -0.00000839    -0.00000043  0.43D-07  0.26D-07     0.29
    4     2     2     1.00299502    -0.00857230    -3.10735550    -0.00003526    -0.00000241  0.32D-06  0.22D-06     0.29
    4     3     3     1.00155877    -0.00586250    -3.10167019    -0.00001455    -0.00000102  0.16D-06  0.64D-07     0.29
    5     1     1     1.00070451    -0.00517268    -3.49990773    -0.00000045    -0.00000003  0.34D-08  0.17D-08     0.33
    5     2     2     1.00300285    -0.00857505    -3.10735825    -0.00000275    -0.00000023  0.28D-07  0.19D-07     0.33
    5     3     3     1.00155760    -0.00586351    -3.10167120    -0.00000101    -0.00000008  0.94D-08  0.42D-08     0.33
    6     1     1     1.00070457    -0.00517268    -3.49990773    -0.00000000    -0.00000003  0.30D-08  0.14D-08     0.38
    6     2     2     1.00300536    -0.00857529    -3.10735850    -0.00000024    -0.00000003  0.35D-08  0.15D-08     0.38
    6     3     3     1.00155847    -0.00586360    -3.10167129    -0.00000009    -0.00000001  0.66D-09  0.37D-09     0.38


 =====================================
 Analysis of CPU times by interactions
 =====================================

       I      S      P

 I   7.9%
 S   5.3%   5.3%
 P   5.3%   2.6%  26.3%

 Initialization:  28.9%
 Other:           18.4%

 Total CPU:        0.4 seconds
 =====================================



 Reference coefficients greater than 0.0500000
 =============================================
 20/0000000          -0.0000000  -0.0000000   0.9871011
 2/00000000           0.9860917  -0.0683031  -0.0000000
 /200000000           0.0697141   0.9687509   0.0000000
 /020000000           0.0198721  -0.1457634  -0.0000000
 //\0000000           0.0000000  -0.0000000   0.0924623
 /\0/000000           0.0084608  -0.0893894  -0.0000000
 020/000000           0.0298164  -0.0876558  -0.0000000
 200/000000          -0.0857286  -0.0554485   0.0000000
 02/0000000           0.0000000   0.0000000  -0.0590702
 2000/00000          -0.0549010  -0.0320789   0.0000000
 0//\000000          -0.0000000  -0.0000000   0.0546321

 Coefficients of fixed reference functions:
 ==========================================

 State      Coefficients
   1         0.999623   -0.000607   -0.000000
   2         0.000914    0.998368    0.000000
   3        -0.000000   -0.000000    0.999143

 Coefficients of rotated reference functions:
 ============================================

 State      Coefficients
   1         0.999623    0.000154   -0.000000
   2         0.000154    0.998368   -0.000000
   3        -0.000000   -0.000000    0.999143



 RESULTS FOR STATE  1.1
 ======================

 Coefficient of reference function:   C(0) = 0.99962320 (fixed)   0.99964790 (relaxed)   0.99962338 (rotated)

 Energy contributions of configuration classes

 CLASS          SQ.NORM        ECORR1        ECORR2
 +++++++++++++++++++++++++++++++++++++++++++++++++++
 Internals    0.00004907   -0.00000005   -0.00382204
 Singles      0.00033584   -0.00134801   -0.00134825
 Pairs        0.00036876    0.00000000   -0.00000238
 Total        1.00075367   -0.00134806   -0.00517268
 +++++++++++++++++++++++++++++++++++++++++++++++++++


 Reference energy                      -3.49473483
 Nuclear energy                         1.76478510
 Kinetic energy                         3.51712344
 One electron energy                   -6.84691893
 Two electron energy                    1.58222610
 Virial quotient                       -0.99510517
 Correlation energy                    -0.00517291
 !MRCI STATE  1.1 Energy               -3.499907734861

 Properties without orbital relaxation:

 !MRCI STATE  1.1 Dipole moment         0.00000000     0.19457518     0.00000000
 Dipole moment /Debye                   0.00000000     0.49452839     0.00000000

 Cluster corrected energies            -3.49991163 (Davidson, fixed reference)
 Cluster corrected energies            -3.49991138 (Davidson, relaxed reference)
 Cluster corrected energies            -3.49991163 (Davidson, rotated reference)

 Cluster corrected energies            -3.49990773 (Pople, fixed reference)
 Cluster corrected energies            -3.49990773 (Pople, relaxed reference)
 Cluster corrected energies            -3.49990773 (Pople, rotated reference)




 RESULTS FOR STATE  2.1
 ======================

 Coefficient of reference function:   C(0) = 0.99836764 (fixed)   0.99850070 (relaxed)   0.99836804 (rotated)

 Energy contributions of configuration classes

 CLASS          SQ.NORM        ECORR1        ECORR2
 +++++++++++++++++++++++++++++++++++++++++++++++++++
 Internals    0.00026576   -0.00000005   -0.00656107
 Singles      0.00064878   -0.00199503   -0.00199535
 Pairs        0.00235738   -0.00000000   -0.00001887
 Total        1.00327192   -0.00199508   -0.00857529
 +++++++++++++++++++++++++++++++++++++++++++++++++++


 Reference energy                      -3.09878343
 Nuclear energy                         1.76478510
 Kinetic energy                         3.17666361
 One electron energy                   -6.05159058
 Two electron energy                    1.17944698
 Virial quotient                       -0.97818305
 Correlation energy                    -0.00857506
 !MRCI STATE  2.1 Energy               -3.107358495197

 Properties without orbital relaxation:

 !MRCI STATE  2.1 Dipole moment         0.00000000     2.71117017     0.00000000
 Dipole moment /Debye                   0.00000000     6.89065587     0.00000000

 Cluster corrected energies            -3.10738655 (Davidson, fixed reference)
 Cluster corrected energies            -3.10738427 (Davidson, relaxed reference)
 Cluster corrected energies            -3.10738655 (Davidson, rotated reference)

 Cluster corrected energies            -3.10735850 (Pople, fixed reference)
 Cluster corrected energies            -3.10735850 (Pople, relaxed reference)
 Cluster corrected energies            -3.10735850 (Pople, rotated reference)




 RESULTS FOR STATE  3.1
 ======================

 Coefficient of reference function:   C(0) = 0.99914298 (fixed)   0.99922167 (relaxed)   0.99914298 (rotated)

 Energy contributions of configuration classes

 CLASS          SQ.NORM        ECORR1        ECORR2
 +++++++++++++++++++++++++++++++++++++++++++++++++++
 Internals    0.00015752   -0.00000001   -0.00000108
 Singles      0.00120970   -0.00250112   -0.00250431
 Pairs        0.00034901   -0.00336232   -0.00335820
 Total        1.00171624   -0.00586345   -0.00586360
 +++++++++++++++++++++++++++++++++++++++++++++++++++


 Reference energy                      -3.09580769
 Nuclear energy                         1.76478510
 Kinetic energy                         3.53748844
 One electron energy                   -6.33599957
 Two electron energy                    1.46954318
 Virial quotient                       -0.87680040
 Correlation energy                    -0.00586360
 !MRCI STATE  3.1 Energy               -3.101671290804

 Properties without orbital relaxation:

 !MRCI STATE  3.1 Dipole moment         0.00000000     0.44167317    -0.00000000
 Dipole moment /Debye                   0.00000000     1.12254769    -0.00000000

 Cluster corrected energies            -3.10168135 (Davidson, fixed reference)
 Cluster corrected energies            -3.10168043 (Davidson, relaxed reference)
 Cluster corrected energies            -3.10168135 (Davidson, rotated reference)

 Cluster corrected energies            -3.10167129 (Pople, fixed reference)
 Cluster corrected energies            -3.10167129 (Pople, relaxed reference)
 Cluster corrected energies            -3.10167129 (Pople, rotated reference)


 !MRCI trans          <2.1|DMY|1.1>    -0.508591451748 au =    -1.292625861934 Debye

 !MRCI trans          <3.1|DMZ|1.1>    -0.927687335970 au =    -2.357791579355 Debye

 !MRCI trans          <3.1|DMZ|2.1>    -0.002516840351 au =    -0.006396751099 Debye


 **********************************************************************************************************************************
 DATASETS  * FILE   NREC   LENGTH (MB)   RECORD NAMES
              1      19       31.24       500      610      700      900      950      970     1000      129      960     1100   
                                          VAR    BASINP    GEOM    SYMINP    ZMAT    AOBASIS   BASIS     P2S    ABASIS      S 
                                         1400     1410     1200     1210     1080     1600     1650     1700     1380   
                                           T        V       H0       H01     AOSYM     SMH    MOLCAS    OPER     JKOP   

              2       7       17.47       500      610      700     1000      520     2341     2342   
                                          VAR    BASINP    GEOM     BASIS   MCVARS    MCSCF    MCSCF   

 PROGRAMS   *        TOTAL        CI     MCSCF     MCSCF       INT      FILE
 CPU TIMES  *         1.77      0.43      0.37      0.70      0.14      0.00
 REAL TIME  *         2.71 SEC
 DISK USED  *        48.76 MB (local),      106.89 MB (total)
 SF USED    *         5.79 MB
 GA USED    *         0.00 MB       (max)       0.00 MB       (current)
 **********************************************************************************************************************************
 ENERGY(1:3)      = [      -3.49990773    -3.10735850    -3.10167129] AU

 Mrci-results: Energies ---  multimrci1-geom589-1

       ENERGY
    -3.49990773
    -3.10735850
    -3.10167129
                                                  

 CI/cc-pVTZ energy=     -3.101671290804

              CI           MCSCF           MCSCF
     -3.10167129     -3.09580769     -3.09728254
 **********************************************************************************************************************************
 Molpro calculation terminated
